LAMMPS (3 Mar 2020)
atom_style      atomic
units           metal
boundary        p p p

lattice         bcc 2.83517
Lattice spacing in x,y,z = 2.83517 2.83517 2.83517
region          region1 block 0 2 0 2 0 2 units lattice
create_box      1 region1
Created orthogonal box = (0 0 0) to (5.67034 5.67034 5.67034)
  1 by 1 by 1 MPI processor grid

create_atoms    1 box
Created 16 atoms
  create_atoms CPU = 0.000264782 secs

pair_style      aenet
pair_coeff      * * v01 Fe 10tw-10tw.ann Fe
mass            1 55.845

thermo_style    custom step etotal pe ke temp vol press
thermo          10

reset_timestep  0
timestep        0.0005

velocity        all create 500 12345 dist gaussian

fix             f1 all nve
run             5000
Neighbor list info ...
  update every 1 steps, delay 10 steps, check yes
  max neighbors/atom: 2000, page size: 100000
  master list distance cutoff = 8.5
  ghost atom cutoff = 8.5
  binsize = 4.25, bins = 2 2 2
  1 neighbor lists, perpetual/occasional/extra = 1 0 0
  (1) pair aenet, perpetual
      attributes: full, newton on
      pair build: full/bin/atomonly
      stencil: full/bin/3d
      bin: standard
Per MPI rank memory allocation (min/avg/max) = 2.978 | 2.978 | 2.978 Mbytes
Step TotEng PotEng KinEng Temp Volume Press 
       0   -71677.189   -71678.158   0.96945109          500    182.31706    6670.9254 
      10   -71677.189     -71678.1   0.91161606    470.17125    182.31706    7715.0904 
      20   -71677.189   -71677.943   0.75408921    388.92587    182.31706    10665.073 
      30   -71677.189   -71677.728   0.53983482    278.42293    182.31706    14968.621 
      40   -71677.189   -71677.515   0.32653966    168.41472    182.31706    19868.298 
      50   -71677.189   -71677.358   0.16961277    87.478767    182.31706    24303.319 
      60   -71677.189   -71677.293   0.10429417    53.790321    182.31706    27258.551 
      70   -71677.189   -71677.325   0.13591825    70.100625    182.31706    28334.979 
      80   -71677.189    -71677.43   0.24136594    124.48588    182.31706    27668.029 
      90   -71677.189   -71677.569   0.37989281    195.93191    182.31706    25731.553 
     100   -71677.189   -71677.697   0.50795472    261.98058    182.31706    23181.611 
     110   -71677.189   -71677.781   0.59269718      305.687    182.31706    20480.448 
     120   -71677.189   -71677.809   0.62046982     320.0109    182.31706    18063.096 
     130   -71677.189   -71677.787   0.59848546    308.67233    182.31706    16079.609 
     140   -71677.189   -71677.739   0.54992202    283.62546    182.31706    14688.463 
     150   -71677.189   -71677.693   0.50420309    260.04565    182.31706    13965.046 
     160   -71677.189   -71677.675   0.48601671    250.66593    182.31706    13794.264 
     170   -71677.189   -71677.694   0.50577733    260.85758    182.31706    13931.802 
     180   -71677.189   -71677.744   0.55489704    286.19136    182.31706    14184.148 
     190   -71677.189   -71677.798   0.60895976    314.07451    182.31706    14553.047 
     200   -71677.189   -71677.827   0.63831519    329.21475    182.31706    15218.661 
     210   -71677.189    -71677.81   0.62110994    320.34104    182.31706    16374.669 
     220   -71677.189   -71677.741   0.55280192    285.11078    182.31706    18041.155 
     230   -71677.189   -71677.637   0.44875124    231.44604    182.31706    19986.025 
     240   -71677.189   -71677.528   0.33933318    175.01305    182.31706    21798.211 
     250   -71677.189   -71677.448   0.25921556    133.69192    182.31706     23065.36 
     260   -71677.189   -71677.423   0.23466393    121.02928    182.31706    23604.377 
     270   -71677.189   -71677.463   0.27395415    141.29343    182.31706     23454.72 
     280   -71677.189   -71677.553   0.36468518    188.08849    182.31706    22719.519 
     290   -71677.189   -71677.667   0.47848223    246.77998    182.31706    21565.483 
     300   -71677.189   -71677.769   0.58064494    299.47098    182.31706    20173.955 
     310   -71677.189    -71677.83   0.64156891    330.89287    182.31706    18704.587 
     320   -71677.189   -71677.835   0.64681835     333.6003    182.31706    17347.648 
     330   -71677.189   -71677.791    0.6023888    310.68551    182.31706      16261.3 
     340   -71677.189   -71677.721   0.53265965    274.72229    182.31706    15455.196 
     350   -71677.189   -71677.659   0.47068065    242.75626    182.31706    14790.172 
     360   -71677.189   -71677.633   0.44395621    228.97298    182.31706    14143.858 
     370   -71677.189   -71677.651   0.46247601    238.52467    182.31706     13602.38 
     380   -71677.189   -71677.704   0.51534186    265.79054    182.31706    13480.975 
     390   -71677.189   -71677.765   0.57669618    297.43439    182.31706    14130.127 
     400   -71677.189   -71677.805   0.61637562    317.89929    182.31706     15689.76 
     410   -71677.189   -71677.799   0.61059897    314.91994    182.31706    17998.129 
     420   -71677.189   -71677.739   0.55031991    283.83067    182.31706    20676.493 
     430   -71677.189   -71677.634   0.44556021    229.80025    182.31706    23268.915 
     440   -71677.189   -71677.513   0.32404021    167.12561    182.31706    25290.501 
     450   -71677.189   -71677.412   0.22368172    115.36514    182.31706    26318.238 
     460   -71677.189   -71677.369   0.18063202    93.162009    182.31706    26127.803 
     470   -71677.189   -71677.405   0.21624169     111.5279    182.31706    24686.815 
     480   -71677.189   -71677.517   0.32804518     169.1912    182.31706     22129.76 
     490   -71677.189   -71677.678   0.48890839    252.15733    182.31706    18858.773 
     500   -71677.189   -71677.844   0.65506149    337.85175    182.31706    15352.805 
     510   -71677.189   -71677.969   0.78006015    402.32053    182.31706    12217.067 
     520   -71677.189   -71678.018   0.82932638    427.72987    182.31706    10079.229 
     530   -71677.189   -71677.979   0.79048927    407.69941    182.31706    9467.7326 
     540   -71677.189   -71677.865   0.67664926    348.98576    182.31706    10619.786 
     550   -71677.189   -71677.711   0.52226437    269.36087    182.31706    13280.019 
     560   -71677.189   -71677.562   0.37311635    192.43692    182.31706    16687.525 
     570   -71677.189   -71677.461   0.27221868    140.39836    182.31706    19893.842 
     580   -71677.189   -71677.434   0.24508859    126.40585    182.31706    22219.564 
     590   -71677.189   -71677.479   0.29071097    149.93586    182.31706    23469.944 
     600   -71677.189   -71677.572   0.38347567    197.77979    182.31706    23834.304 
     610   -71677.189   -71677.674   0.48493517    250.10812    182.31706    23631.211 
     620   -71677.189   -71677.748   0.55884957     288.2299    182.31706    23041.614 
     630   -71677.189   -71677.772   0.58331442    300.84778    182.31706    22132.317 
     640   -71677.189   -71677.745   0.55683091    287.18876    182.31706    20981.144 
     650   -71677.189   -71677.686   0.49727371    256.47179    182.31706    19749.709 
     660   -71677.189   -71677.623   0.43423229    223.95781    182.31706    18606.071 
     670   -71677.189   -71677.586   0.39725133    204.88467    182.31706     17596.71 
     680   -71677.189   -71677.593   0.40417339    208.45476    182.31706    16635.496 
     690   -71677.189   -71677.643   0.45414726    234.22907    182.31706    15650.671 
     700   -71677.189   -71677.717   0.52832809    272.48827    182.31706    14747.973 
     710   -71677.189   -71677.787   0.59789833    308.36952    182.31706    14215.291 
     720   -71677.189   -71677.824   0.63567672    327.85394    182.31706    14338.285 
     730   -71677.189   -71677.815   0.62650639    323.12429    182.31706    15176.464 
     740   -71677.189   -71677.761   0.57278281    295.41604    182.31706    16493.825 
     750   -71677.189   -71677.682   0.49330363     254.4242    182.31706    17902.556 
     760   -71677.189   -71677.604   0.41577002    214.43579    182.31706    19094.421 
     770   -71677.189   -71677.555    0.3660598    188.79746    182.31706    19972.427 
     780   -71677.189   -71677.548   0.35897296    185.14238    182.31706    20610.352 
     790   -71677.189   -71677.582   0.39372984    203.06844    182.31706    21121.651 
     800   -71677.189   -71677.643   0.45482389    234.57805    182.31706    21563.879 
     810   -71677.189   -71677.706   0.51735883    266.83081    182.31706    21860.672 
     820   -71677.189   -71677.744   0.55561286    286.56054    182.31706    21949.966 
     830   -71677.189   -71677.741   0.55248306    284.94633    182.31706    21824.621 
     840   -71677.189   -71677.695   0.50654524    261.25363    182.31706    21468.514 
     850   -71677.189   -71677.623   0.43396779    223.82139    182.31706    20846.167 
     860   -71677.189   -71677.553   0.36408535    187.77912    182.31706    19881.907 
     870   -71677.189   -71677.518   0.32943583    169.90843    182.31706    18477.515 
     880   -71677.189   -71677.542   0.35302711    182.07577    182.31706    16567.712 
     890   -71677.189   -71677.626   0.43765285    225.72199    182.31706    14316.072 
     900   -71677.189   -71677.751    0.5624572    290.09055    182.31706    12179.834 
     910   -71677.189   -71677.878   0.68900842    355.36007    182.31706     10849.12 
     920   -71677.189   -71677.963   0.77415896    399.27696    182.31706    10921.902 
     930   -71677.189   -71677.973   0.78437183     404.5443    182.31706    12597.292 
     940   -71677.189   -71677.896   0.70720105    364.74303    182.31706    15599.668 
     950   -71677.189   -71677.746    0.5571012    287.32816    182.31706    19294.148 
     960   -71677.189   -71677.562   0.37353885    192.65482    182.31706    22874.808 
     970   -71677.189   -71677.399   0.21063257    108.63497    182.31706    25684.945 
     980   -71677.189   -71677.308    0.1195979     61.68331    182.31706      27088.2 
     990   -71677.189   -71677.318   0.12985646    66.974222    182.31706    26919.406 
    1000   -71677.189   -71677.426   0.23744594    122.46412    182.31706    25276.802 
    1010   -71677.189   -71677.595   0.40679325    209.80597    182.31706    22501.177 
    1020   -71677.189   -71677.773   0.58474671     301.5865    182.31706    19091.163 
    1030   -71677.189   -71677.908   0.71954775    371.11091    182.31706    15663.456 
    1040   -71677.189   -71677.965   0.77672952    400.60274    182.31706    12923.905 
    1050   -71677.189   -71677.936    0.7477907    385.67738    182.31706    11487.084 
    1060   -71677.189   -71677.839    0.6505755    335.53807    182.31706    11650.789 
    1070   -71677.189   -71677.711   0.52243693    269.44986    182.31706    13171.256 
    1080   -71677.189   -71677.597   0.40808353    210.47144    182.31706     15316.89 
    1090   -71677.189   -71677.533    0.3443127    177.58127    182.31706    17304.235 
    1100   -71677.189   -71677.535   0.34656391    178.74234    182.31706    18689.905 
    1110   -71677.189   -71677.593   0.40423517    208.48662    182.31706    19505.386 
    1120   -71677.189   -71677.676   0.48719769    251.27503    182.31706    20060.097 
    1130   -71677.189   -71677.748   0.55902826    288.32206    182.31706     20569.24 
    1140   -71677.189   -71677.779   0.59053123     304.5699    182.31706    21092.264 
    1150   -71677.189   -71677.758   0.56928071    293.60981    182.31706    21588.253 
    1160   -71677.189   -71677.692   0.50298757    259.41875    182.31706    21903.586 
    1170   -71677.189   -71677.605   0.41598636    214.54737    182.31706    22014.878 
    1180   -71677.189   -71677.529   0.34023645    175.47891    182.31706    21917.723 
    1190   -71677.189   -71677.493   0.30431693    156.95321    182.31706    21558.085 
    1200   -71677.189   -71677.512   0.32379561    166.99946    182.31706     20825.78 
    1210   -71677.189   -71677.584   0.39540158    203.93065    182.31706    19589.258 
    1220   -71677.189   -71677.686    0.4974117    256.54296    182.31706    17890.375 
    1230   -71677.189   -71677.786   0.59696294    307.88708    182.31706    16052.126 
    1240   -71677.189   -71677.851   0.66207494    341.46898    182.31706    14542.305 
    1250   -71677.189 